                         Program Version 5.0.3 -  RELEASE  -
|  1> #BASE_TS_S-ax-R_2m.mol2_obabel_ClC#CC2=CC=CC=C2C_F__F_F_tmp.xyz_to.mol2.xyz
|  2> %maxcore 6000
|  3> %pal nprocs 8 end
|  4> ! HF def2-svp NBO
|  5> %nbo
|  6>  NBOKEYLIST = "$NBO NPA NBBP ARCHIVE $END"
|  7> end
|  8>
|  9> * xyz 0  1
| 10> C     6.7155    -3.2449    -0.8469
| 11> C     5.3086    -3.6194    -1.3797
| 12> C     4.4558    -4.4143    -0.4146
| 13> C     5.0207    -4.7756     0.7665
| 14> C     6.3427    -4.4195     1.0984
| 15> N     7.1419    -3.6863     0.3037
| 16> H     4.3847    -5.2851     1.4603
| 17> C     7.6468    -2.5033    -1.6654
| 18> C     8.9920    -2.9570    -1.8272
| 19> C     9.9060    -2.1507    -2.5217
| 20> C     8.1966    -0.5125    -2.9720
| 21> C     9.5246    -0.9309    -3.0898
| 22> H    10.9157    -2.4675    -2.6395
| 23> H     7.8862     0.4113    -3.3984
| 24> C     7.2729    -1.2668    -2.2658
| 25> F     6.0462    -0.7541    -2.0731
| 26> N     6.8489    -4.8367     2.3430
| 27> I     4.9932    -3.6291    -3.4416
| 28> H     4.6789    -2.2559    -1.0331
| 29> C     2.1624     4.9968    -1.6322
| 30> C     2.0899     3.7300    -1.0683
| 31> C     3.2440     3.0765    -0.6100
| 32> C     4.5130     3.7311    -0.7784
| 33> C     4.5641     5.0254    -1.3371
| 34> C     3.3948     5.6439    -1.7654
| 35> H     1.2707     5.4828    -1.9624
| 36> H     1.1474     3.2399    -0.9859
| 37> C     3.1659     1.7403    -0.0426
| 38> C     5.6796     3.0581    -0.3997
| 39> H     5.5070     5.5080    -1.4731
| 40> H     3.4384     6.6217    -2.2017
| 41> C     5.6081     1.7568     0.1282
| 42> C     4.3887     1.0631     0.2421
| 43> H     6.6417     3.5204    -0.5248
| 44> C     1.8531     1.1353     0.2221
| 45> C     1.4467    -0.0758    -0.4175
| 46> C     0.9290     1.7483     1.1584
| 47> C     0.2255    -0.6784    -0.0737
| 48> C    -0.3630     1.1692     1.4041
| 49> C     1.2949     2.8989     1.8830
| 50> C    -0.7007    -0.0368     0.7749
| 51> C    -1.2497     1.8024     2.2985
| 52> C     0.4169     3.4964     2.7763
| 53> H     2.2690     3.3109     1.7440
| 54> H    -1.6521    -0.5011     0.9629
| 55> C    -0.8549     2.9544     2.9792
| 56> H    -2.2151     1.3800     2.4786
| 57> H     0.7107     4.3741     3.3028
| 58> H    -1.5348     3.4259     3.6590
| 59> S     4.3160    -0.6275     0.7353
| 60> O     3.3828    -0.7219     1.8281
| 61> O     5.6326    -1.1666     0.9536
| 62> S     2.5815    -0.7895    -1.5545
| 63> O     3.0843     0.2826    -2.3846
| 64> O     1.9943    -1.9066    -2.2481
| 65> N     3.6798    -1.3626    -0.5322
| 66> C     8.1571    -4.4259     2.8363
| 67> H     8.9364    -4.9190     2.2474
| 68> H     8.2732    -3.3425     2.7083
| 69> C     6.0805    -5.5594     3.3659
| 70> H     5.6566    -6.4825     2.9547
| 71> H     5.2487    -4.9243     3.6933
| 72> C     7.0605    -5.8382     4.5130
| 73> H     7.4351    -6.8690     4.4544
| 74> H     6.5841    -5.7334     5.4983
| 75> C     8.2125    -4.8403     4.3173
| 76> H     9.1853    -5.2731     4.5893
| 77> H     8.0702    -3.9637     4.9658
| 78> Cl     2.7746    -4.0508    -0.2370
| 79> O     9.3395    -4.1707    -1.2600
| 80> C    10.5915    -4.6830    -1.6458
| 81> H    10.6455    -4.7362    -2.7343
| 82> H    11.3938    -4.0550    -1.2510
| 83> H    10.6987    -5.6880    -1.2373
| 84> C    10.4995    -0.1235    -3.8502
| 85> H    11.5157    -0.2948    -3.4893
| 86> H    10.2878     0.9415    -3.7445
| 87> H    10.4695    -0.3748    -4.9131
| 88> C     6.8680     1.2499     0.5585
| 89> C     7.9712     0.8808     0.8590
| 90> C     9.2917     0.4191     1.1594
| 91> C     9.5039    -0.9592     1.2278
| 92> C    10.7753    -1.4750     1.4715
| 93> C    11.8472    -0.6109     1.6655
| 94> C    11.6424     0.7695     1.6167
| 95> C    10.3635     1.3024     1.3570
| 96> C    10.1637     2.7913     1.2936
| 97> F    11.3247     3.4932     1.4781
| 98> F     9.6792     3.2288     0.0957
| 99> F     9.3109     3.2703     2.2438
|100> H     8.6692    -1.6475     1.0791
|101> H    10.9052    -2.5545     1.5030
|102> H    12.8371    -1.0145     1.8576
|103> H    12.4900     1.4330     1.7789
|104> C    -0.2101    -1.9379    -0.5813
|105> C    -0.6000    -2.9958    -0.9972
|106> C    -1.0208    -4.2655    -1.5074
|107> C    -0.1962    -4.9061    -2.4427
|108> C    -0.5531    -6.1466    -2.9692
|109> C    -1.7367    -6.7567    -2.5626
|110> C    -2.5628    -6.1256    -1.6289
|111> C    -2.2180    -4.8705    -1.0901
|112> C    -3.1199    -4.2066    -0.0831
|113> F    -2.5311    -4.0138     1.1307
|114> F    -3.5724    -2.9839    -0.4842
|115> F    -4.2505    -4.9306     0.1797
|116> H     0.7379    -4.4387    -2.7593
|117> H     0.1004    -6.6303    -3.6915
|118> H    -2.0128    -7.7269    -2.9668
|119> H    -3.4790    -6.6248    -1.3159
|120> *
|121>
|122>
|123>
|124>
|125>                          ****END OF INPUT****

CARTESIAN COORDINATES (ANGSTROEM)
---------------------------------
  C      6.715500   -3.244900   -0.846900
  C      5.308600   -3.619400   -1.379700
  C      4.455800   -4.414300   -0.414600
  C      5.020700   -4.775600    0.766500
  C      6.342700   -4.419500    1.098400
  N      7.141900   -3.686300    0.303700
  H      4.384700   -5.285100    1.460300
  C      7.646800   -2.503300   -1.665400
  C      8.992000   -2.957000   -1.827200
  C      9.906000   -2.150700   -2.521700
  C      8.196600   -0.512500   -2.972000
  C      9.524600   -0.930900   -3.089800
  H     10.915700   -2.467500   -2.639500
  H      7.886200    0.411300   -3.398400
  C      7.272900   -1.266800   -2.265800
  F      6.046200   -0.754100   -2.073100
  N      6.848900   -4.836700    2.343000
  I      4.993200   -3.629100   -3.441600
  H      4.678900   -2.255900   -1.033100
  C      2.162400    4.996800   -1.632200
  C      2.089900    3.730000   -1.068300
  C      3.244000    3.076500   -0.610000
  C      4.513000    3.731100   -0.778400
  C      4.564100    5.025400   -1.337100
  C      3.394800    5.643900   -1.765400
  H      1.270700    5.482800   -1.962400
  H      1.147400    3.239900   -0.985900
  C      3.165900    1.740300   -0.042600
  C      5.679600    3.058100   -0.399700
  H      5.507000    5.508000   -1.473100
  H      3.438400    6.621700   -2.201700
  C      5.608100    1.756800    0.128200
  C      4.388700    1.063100    0.242100
  H      6.641700    3.520400   -0.524800
  C      1.853100    1.135300    0.222100
  C      1.446700   -0.075800   -0.417500
  C      0.929000    1.748300    1.158400
  C      0.225500   -0.678400   -0.073700
  C     -0.363000    1.169200    1.404100
  C      1.294900    2.898900    1.883000
  C     -0.700700   -0.036800    0.774900
  C     -1.249700    1.802400    2.298500
  C      0.416900    3.496400    2.776300
  H      2.269000    3.310900    1.744000
  H     -1.652100   -0.501100    0.962900
  C     -0.854900    2.954400    2.979200
  H     -2.215100    1.380000    2.478600
  H      0.710700    4.374100    3.302800
  H     -1.534800    3.425900    3.659000
  S      4.316000   -0.627500    0.735300
  O      3.382800   -0.721900    1.828100
  O      5.632600   -1.166600    0.953600
  S      2.581500   -0.789500   -1.554500
  O      3.084300    0.282600   -2.384600
  O      1.994300   -1.906600   -2.248100
  N      3.679800   -1.362600   -0.532200
  C      8.157100   -4.425900    2.836300
  H      8.936400   -4.919000    2.247400
  H      8.273200   -3.342500    2.708300
  C      6.080500   -5.559400    3.365900
  H      5.656600   -6.482500    2.954700
  H      5.248700   -4.924300    3.693300
  C      7.060500   -5.838200    4.513000
  H      7.435100   -6.869000    4.454400
  H      6.584100   -5.733400    5.498300
  C      8.212500   -4.840300    4.317300
  H      9.185300   -5.273100    4.589300
  H      8.070200   -3.963700    4.965800
  Cl     2.774600   -4.050800   -0.237000
  O      9.339500   -4.170700   -1.260000
  C     10.591500   -4.683000   -1.645800
  H     10.645500   -4.736200   -2.734300
  H     11.393800   -4.055000   -1.251000
  H     10.698700   -5.688000   -1.237300
  C     10.499500   -0.123500   -3.850200
  H     11.515700   -0.294800   -3.489300
  H     10.287800    0.941500   -3.744500
  H     10.469500   -0.374800   -4.913100
  C      6.868000    1.249900    0.558500
  C      7.971200    0.880800    0.859000
  C      9.291700    0.419100    1.159400
  C      9.503900   -0.959200    1.227800
  C     10.775300   -1.475000    1.471500
  C     11.847200   -0.610900    1.665500
  C     11.642400    0.769500    1.616700
  C     10.363500    1.302400    1.357000
  C     10.163700    2.791300    1.293600
  F     11.324700    3.493200    1.478100
  F      9.679200    3.228800    0.095700
  F      9.310900    3.270300    2.243800
  H      8.669200   -1.647500    1.079100
  H     10.905200   -2.554500    1.503000
  H     12.837100   -1.014500    1.857600
  H     12.490000    1.433000    1.778900
  C     -0.210100   -1.937900   -0.581300
  C     -0.600000   -2.995800   -0.997200
  C     -1.020800   -4.265500   -1.507400
  C     -0.196200   -4.906100   -2.442700
  C     -0.553100   -6.146600   -2.969200
  C     -1.736700   -6.756700   -2.562600
  C     -2.562800   -6.125600   -1.628900
  C     -2.218000   -4.870500   -1.090100
  C     -3.119900   -4.206600   -0.083100
  F     -2.531100   -4.013800    1.130700
  F     -3.572400   -2.983900   -0.484200
  F     -4.250500   -4.930600    0.179700
  H      0.737900   -4.438700   -2.759300
  H      0.100400   -6.630300   -3.691500
  H     -2.012800   -7.726900   -2.966800
  H     -3.479000   -6.624800   -1.315900

 Total Charge           Charge          ....    0
 Multiplicity           Mult            ....    1
 Number of Electrons    NEL             ....  564
 Basis Dimension        Dim             .... 1240

ORBITAL ENERGIES
----------------

  NO   OCC          E(Eh)            E(eV)
   0   2.0000    -104.806772     -2851.9372
   1   2.0000     -92.174040     -2508.1832
   2   2.0000     -92.170092     -2508.0757
   3   2.0000     -26.323713      -716.3047
   4   2.0000     -26.322300      -716.2662
   5   2.0000     -26.319175      -716.1812
   6   2.0000     -26.318311      -716.1576
   7   2.0000     -26.316587      -716.1107
   8   2.0000     -26.312436      -715.9978
   9   2.0000     -26.312093      -715.9884
  10   2.0000     -20.600359      -560.5643
  11   2.0000     -20.529062      -558.6242
  12   2.0000     -20.513244      -558.1937
  13   2.0000     -20.508357      -558.0608
  14   2.0000     -20.507446      -558.0360
  15   2.0000     -15.610461      -424.7822
  16   2.0000     -15.576741      -423.8647
  17   2.0000     -15.563013      -423.4911
  18   2.0000     -11.516334      -313.3754
  19   2.0000     -11.508242      -313.1552
  20   2.0000     -11.376194      -309.5620
  21   2.0000     -11.359940      -309.1197
  22   2.0000     -11.356976      -309.0390
  23   2.0000     -11.355493      -308.9987
  24   2.0000     -11.343795      -308.6804
  25   2.0000     -11.307536      -307.6937
  26   2.0000     -11.305393      -307.6354
  27   2.0000     -11.289371      -307.1994
  28   2.0000     -11.288428      -307.1737
  29   2.0000     -11.286554      -307.1228
  30   2.0000     -11.285651      -307.0982
  31   2.0000     -11.280742      -306.9646
  32   2.0000     -11.280128      -306.9479
  33   2.0000     -11.278869      -306.9136
  34   2.0000     -11.278768      -306.9109
  35   2.0000     -11.278334      -306.8991
  36   2.0000     -11.277764      -306.8836
  37   2.0000     -11.277233      -306.8691
  38   2.0000     -11.274598      -306.7974
  39   2.0000     -11.271589      -306.7155
  40   2.0000     -11.271482      -306.7126
  41   2.0000     -11.267146      -306.5946
  42   2.0000     -11.262885      -306.4787
  43   2.0000     -11.261845      -306.4504
  44   2.0000     -11.261498      -306.4410
  45   2.0000     -11.261244      -306.4340
  46   2.0000     -11.261076      -306.4295
  47   2.0000     -11.260977      -306.4268
  48   2.0000     -11.257924      -306.3437
  49   2.0000     -11.257387      -306.3291
  50   2.0000     -11.256078      -306.2934
  51   2.0000     -11.255039      -306.2652
  52   2.0000     -11.254955      -306.2629
  53   2.0000     -11.253040      -306.2108
  54   2.0000     -11.252660      -306.2005
  55   2.0000     -11.251195      -306.1606
  56   2.0000     -11.248971      -306.1001
  57   2.0000     -11.248674      -306.0920
  58   2.0000     -11.248274      -306.0811
  59   2.0000     -11.247551      -306.0614
  60   2.0000     -11.247017      -306.0469
  61   2.0000     -11.246787      -306.0406
  62   2.0000     -11.245690      -306.0108
  63   2.0000     -11.245292      -306.0000
  64   2.0000     -11.243726      -305.9573
  65   2.0000     -11.243683      -305.9562
  66   2.0000     -11.243222      -305.9436
  67   2.0000     -11.242375      -305.9206
  68   2.0000     -11.241915      -305.9081
  69   2.0000     -11.238304      -305.8098
  70   2.0000     -11.231795      -305.6327
  71   2.0000     -11.230297      -305.5919
  72   2.0000     -11.225744      -305.4680
  73   2.0000     -10.570113      -287.6274
  74   2.0000      -9.173889      -249.6342
  75   2.0000      -9.169490      -249.5145
  76   2.0000      -8.044996      -218.9155
  77   2.0000      -8.041177      -218.8115
  78   2.0000      -8.040995      -218.8066
  79   2.0000      -7.735729      -210.4999
  80   2.0000      -6.865333      -186.8152
  81   2.0000      -6.864998      -186.8061
  82   2.0000      -6.864065      -186.7807
  83   2.0000      -6.860821      -186.6924
  84   2.0000      -6.860687      -186.6888
  85   2.0000      -6.859694      -186.6618
  86   2.0000      -5.593769      -152.2142
  87   2.0000      -5.579472      -151.8251
  88   2.0000      -5.578758      -151.8057
  89   2.0000      -2.289666       -62.3050
  90   2.0000      -2.283421       -62.1350
  91   2.0000      -2.282819       -62.1187
  92   2.0000      -2.267952       -61.7141
  93   2.0000      -2.267929       -61.7135
  94   2.0000      -1.689099       -45.9627
  95   2.0000      -1.681514       -45.7563
  96   2.0000      -1.619993       -44.0822
  97   2.0000      -1.592352       -43.3301
  98   2.0000      -1.590059       -43.2677
  99   2.0000      -1.584466       -43.1155
 100   2.0000      -1.583075       -43.0777
 101   2.0000      -1.460548       -39.7435
 102   2.0000      -1.437194       -39.1080
 103   2.0000      -1.413793       -38.4713
 104   2.0000      -1.316140       -35.8140
 105   2.0000      -1.313162       -35.7330
 106   2.0000      -1.303858       -35.4798
 107   2.0000      -1.250952       -34.0401
 108   2.0000      -1.213219       -33.0134
 109   2.0000      -1.193625       -32.4802
 110   2.0000      -1.184092       -32.2208
 111   2.0000      -1.180512       -32.1234
 112   2.0000      -1.176458       -32.0131
 113   2.0000      -1.170056       -31.8389
 114   2.0000      -1.169815       -31.8323
 115   2.0000      -1.128614       -30.7111
 116   2.0000      -1.124255       -30.5925
 117   2.0000      -1.104787       -30.0628
 118   2.0000      -1.096244       -29.8303
 119   2.0000      -1.071543       -29.1582
 120   2.0000      -1.069809       -29.1110
 121   2.0000      -1.062486       -28.9117
 122   2.0000      -1.055425       -28.7196
 123   2.0000      -1.051780       -28.6204
 124   2.0000      -1.047380       -28.5007
 125   2.0000      -1.043231       -28.3878
 126   2.0000      -1.033173       -28.1141
 127   2.0000      -1.028777       -27.9944
 128   2.0000      -1.028316       -27.9819
 129   2.0000      -1.019953       -27.7543
 130   2.0000      -1.010778       -27.5047
 131   2.0000      -1.005516       -27.3615
 132   2.0000      -1.004902       -27.3448
 133   2.0000      -0.977804       -26.6074
 134   2.0000      -0.971285       -26.4300
 135   2.0000      -0.967167       -26.3179
 136   2.0000      -0.955836       -26.0096
 137   2.0000      -0.950163       -25.8553
 138   2.0000      -0.942209       -25.6388
 139   2.0000      -0.922662       -25.1069
 140   2.0000      -0.921449       -25.0739
 141   2.0000      -0.906160       -24.6579
 142   2.0000      -0.881381       -23.9836
 143   2.0000      -0.875268       -23.8173
 144   2.0000      -0.871761       -23.7218
 145   2.0000      -0.862160       -23.4606
 146   2.0000      -0.856897       -23.3174
 147   2.0000      -0.854580       -23.2543
 148   2.0000      -0.853217       -23.2172
 149   2.0000      -0.847562       -23.0633
 150   2.0000      -0.844073       -22.9684
 151   2.0000      -0.841782       -22.9061
 152   2.0000      -0.838074       -22.8052
 153   2.0000      -0.828835       -22.5537
 154   2.0000      -0.811846       -22.0915
 155   2.0000      -0.806482       -21.9455
 156   2.0000      -0.802156       -21.8278
 157   2.0000      -0.798776       -21.7358
 158   2.0000      -0.796828       -21.6828
 159   2.0000      -0.796173       -21.6650
 160   2.0000      -0.794246       -21.6125
 161   2.0000      -0.790779       -21.5182
 162   2.0000      -0.789449       -21.4820
 163   2.0000      -0.782015       -21.2797
 164   2.0000      -0.757157       -20.6033
 165   2.0000      -0.754668       -20.5356
 166   2.0000      -0.749585       -20.3972
 167   2.0000      -0.745586       -20.2884
 168   2.0000      -0.735316       -20.0090
 169   2.0000      -0.729662       -19.8551
 170   2.0000      -0.723259       -19.6809
 171   2.0000      -0.720341       -19.6015
 172   2.0000      -0.716846       -19.5064
 173   2.0000      -0.710221       -19.3261
 174   2.0000      -0.707592       -19.2545
 175   2.0000      -0.703339       -19.1388
 176   2.0000      -0.699953       -19.0467
 177   2.0000      -0.698441       -19.0056
 178   2.0000      -0.697938       -18.9918
 179   2.0000      -0.695181       -18.9168
 180   2.0000      -0.692138       -18.8340
 181   2.0000      -0.690581       -18.7917
 182   2.0000      -0.690171       -18.7805
 183   2.0000      -0.687909       -18.7190
 184   2.0000      -0.678254       -18.4562
 185   2.0000      -0.676059       -18.3965
 186   2.0000      -0.673593       -18.3294
 187   2.0000      -0.663367       -18.0511
 188   2.0000      -0.660327       -17.9684
 189   2.0000      -0.659721       -17.9519
 190   2.0000      -0.655578       -17.8392
 191   2.0000      -0.652192       -17.7471
 192   2.0000      -0.651409       -17.7257
 193   2.0000      -0.650288       -17.6952
 194   2.0000      -0.649628       -17.6773
 195   2.0000      -0.645901       -17.5758
 196   2.0000      -0.642914       -17.4946
 197   2.0000      -0.642567       -17.4851
 198   2.0000      -0.641560       -17.4577
 199   2.0000      -0.637184       -17.3387
 200   2.0000      -0.636916       -17.3314
 201   2.0000      -0.632350       -17.2071
 202   2.0000      -0.629375       -17.1262
 203   2.0000      -0.627035       -17.0625
 204   2.0000      -0.625468       -17.0198
 205   2.0000      -0.620503       -16.8847
 206   2.0000      -0.619336       -16.8530
 207   2.0000      -0.615184       -16.7400
 208   2.0000      -0.610567       -16.6144
 209   2.0000      -0.610291       -16.6069
 210   2.0000      -0.605804       -16.4848
 211   2.0000      -0.604099       -16.4384
 212   2.0000      -0.602457       -16.3937
 213   2.0000      -0.601328       -16.3630
 214   2.0000      -0.600862       -16.3503
 215   2.0000      -0.599667       -16.3178
 216   2.0000      -0.598249       -16.2792
 217   2.0000      -0.597103       -16.2480
 218   2.0000      -0.590634       -16.0720
 219   2.0000      -0.587388       -15.9836
 220   2.0000      -0.578257       -15.7352
 221   2.0000      -0.577127       -15.7044
 222   2.0000      -0.575450       -15.6588
 223   2.0000      -0.571956       -15.5637
 224   2.0000      -0.563200       -15.3255
 225   2.0000      -0.559426       -15.2228
 226   2.0000      -0.557564       -15.1721
 227   2.0000      -0.550184       -14.9713
 228   2.0000      -0.542252       -14.7554
 229   2.0000      -0.540933       -14.7195
 230   2.0000      -0.539512       -14.6809
 231   2.0000      -0.536544       -14.6001
 232   2.0000      -0.535145       -14.5620
 233   2.0000      -0.530381       -14.4324
 234   2.0000      -0.528618       -14.3844
 235   2.0000      -0.526859       -14.3366
 236   2.0000      -0.526290       -14.3211
 237   2.0000      -0.525091       -14.2885
 238   2.0000      -0.521246       -14.1838
 239   2.0000      -0.519600       -14.1390
 240   2.0000      -0.517801       -14.0901
 241   2.0000      -0.517383       -14.0787
 242   2.0000      -0.514256       -13.9936
 243   2.0000      -0.510463       -13.8904
 244   2.0000      -0.509832       -13.8732
 245   2.0000      -0.503900       -13.7118
 246   2.0000      -0.501619       -13.6498
 247   2.0000      -0.495073       -13.4716
 248   2.0000      -0.489319       -13.3150
 249   2.0000      -0.486759       -13.2454
 250   2.0000      -0.484404       -13.1813
 251   2.0000      -0.482247       -13.1226
 252   2.0000      -0.480146       -13.0654
 253   2.0000      -0.477214       -12.9857
 254   2.0000      -0.469134       -12.7658
 255   2.0000      -0.463581       -12.6147
 256   2.0000      -0.454625       -12.3710
 257   2.0000      -0.452200       -12.3050
 258   2.0000      -0.442573       -12.0430
 259   2.0000      -0.436385       -11.8746
 260   2.0000      -0.426171       -11.5967
 261   2.0000      -0.423169       -11.5150
 262   2.0000      -0.419866       -11.4251
 263   2.0000      -0.415016       -11.2931
 264   2.0000      -0.394491       -10.7346
 265   2.0000      -0.393043       -10.6952
 266   2.0000      -0.386941       -10.5292
 267   2.0000      -0.382574       -10.4104
 268   2.0000      -0.376709       -10.2508
 269   2.0000      -0.372488       -10.1359
 270   2.0000      -0.367441        -9.9986
 271   2.0000      -0.364813        -9.9271
 272   2.0000      -0.357834        -9.7372
 273   2.0000      -0.352002        -9.5785
 274   2.0000      -0.350097        -9.5266
 275   2.0000      -0.344867        -9.3843
 276   2.0000      -0.336353        -9.1526
 277   2.0000      -0.322531        -8.7765
 278   2.0000      -0.314691        -8.5632
 279   2.0000      -0.306409        -8.3378
 280   2.0000      -0.282568        -7.6891
 281   2.0000      -0.269989        -7.3468
 282   0.0000       0.021982         0.5982
 283   0.0000       0.042673         1.1612
 284   0.0000       0.051992         1.4148
 285   0.0000       0.063508         1.7281
 286   0.0000       0.070520         1.9190

MULLIKEN ATOMIC CHARGES
-----------------------
   0 C :    0.370628
   1 C :   -0.700450
   2 C :    0.194044
   3 C :   -0.120778
   4 C :    0.554276
   5 N :   -0.382359
   6 H :    0.066633
   7 C :   -0.308457
   8 C :    0.444507
   9 C :   -0.162200
  10 C :   -0.108490
  11 C :   -0.094362
  12 H :    0.013469
  13 H :    0.039936
  14 C :    0.516122
  15 F :   -0.321580
  16 N :   -0.726226
  17 I :    0.177141
  18 H :    0.530652
  19 C :   -0.016399
  20 C :    0.017418
  21 C :   -0.058418
  22 C :   -0.017663
  23 C :   -0.006213
  24 C :   -0.004477
  25 H :    0.036365
  26 H :    0.060884
  27 C :    0.027318
  28 C :    0.045121
  29 H :    0.028174
  30 H :    0.038478
  31 C :   -0.117045
  32 C :   -0.102680
  33 H :    0.044578
  34 C :    0.041040
  35 C :   -0.112188
  36 C :   -0.058865
  37 C :   -0.100961
  38 C :   -0.020372
  39 C :    0.009165
  40 C :    0.055573
  41 C :   -0.007789
  42 C :   -0.014408
  43 H :    0.061612
  44 H :    0.047455
  45 C :   -0.005709
  46 H :    0.031124
  47 H :    0.034154
  48 H :    0.038513
  49 S :    1.362261
  50 O :   -0.619878
  51 O :   -0.635237
  52 S :    1.350665
  53 O :   -0.612816
  54 O :   -0.613414
  55 N :   -0.869370
  56 C :    0.251185
  57 H :    0.042990
  58 H :    0.065217
  59 C :    0.206491
  60 H :    0.050096
  61 H :    0.062753
  62 C :   -0.076005
  63 H :    0.050393
  64 H :    0.060041
  65 C :   -0.112457
  66 H :    0.051727
  67 H :    0.059100
  68 Cl:   -0.018688
  69 O :   -0.544565
  70 C :    0.226884
  71 H :    0.037016
  72 H :    0.031111
  73 H :    0.054193
  74 C :    0.068885
  75 H :    0.041698
  76 H :    0.053701
  77 H :    0.067033
  78 C :    0.010214
  79 C :   -0.014761
  80 C :   -0.052664
  81 C :   -0.031166
  82 C :   -0.023851
  83 C :   -0.037203
  84 C :    0.009225
  85 C :   -0.297900
  86 C :    1.085304
  87 F :   -0.325021
  88 F :   -0.319486
  89 F :   -0.313367
  90 H :    0.122551
  91 H :    0.050299
  92 H :    0.048678
  93 H :    0.065712
  94 C :    0.008171
  95 C :   -0.007157
  96 C :   -0.075519
  97 C :    0.003030
  98 C :   -0.013175
  99 C :   -0.037970
 100 C :    0.006582
 101 C :   -0.288836
 102 C :    1.083137
 103 F :   -0.316031
 104 F :   -0.318011
 105 F :   -0.324218
 106 H :    0.086969
 107 H :    0.053507
 108 H :    0.050729
 109 H :    0.064927
Sum of atomic charges:    0.0000000

LOEWDIN ATOMIC CHARGES
----------------------
   0 C :    0.155581
   1 C :   -0.358928
   2 C :   -0.021718
   3 C :   -0.119481
   4 C :    0.215281
   5 N :   -0.161571
   6 H :    0.033741
   7 C :   -0.136363
   8 C :    0.160355
   9 C :   -0.098887
  10 C :   -0.074589
  11 C :    0.028868
  12 H :    0.021893
  13 H :    0.034391
  14 C :    0.189062
  15 F :   -0.106863
  16 N :   -0.121954
  17 I :    0.199464
  18 H :    0.192715
  19 C :   -0.017684
  20 C :    0.011593
  21 C :   -0.008009
  22 C :   -0.009878
  23 C :   -0.011293
  24 C :   -0.006418
  25 H :    0.026927
  26 H :    0.031455
  27 C :    0.013675
  28 C :    0.031456
  29 H :    0.026495
  30 H :    0.026728
  31 C :   -0.040485
  32 C :   -0.181260
  33 H :    0.038278
  34 C :    0.008942
  35 C :   -0.181078
  36 C :   -0.010063
  37 C :   -0.034024
  38 C :   -0.010008
  39 C :    0.007114
  40 C :    0.035261
  41 C :   -0.009438
  42 C :   -0.018596
  43 H :    0.030576
  44 H :    0.039813
  45 C :   -0.006838
  46 H :    0.027609
  47 H :    0.026160
  48 H :    0.026500
  49 S :    1.323757
  50 O :   -0.595109
  51 O :   -0.584014
  52 S :    1.328145
  53 O :   -0.590932
  54 O :   -0.577104
  55 N :   -0.629054
  56 C :    0.084674
  57 H :    0.012472
  58 H :    0.023311
  59 C :    0.081465
  60 H :    0.015711
  61 H :    0.018506
  62 C :   -0.019193
  63 H :    0.020746
  64 H :    0.027519
  65 C :   -0.022230
  66 H :    0.023132
  67 H :    0.024733
  68 Cl:    0.199525
  69 O :   -0.185971
  70 C :    0.130335
  71 H :    0.009967
  72 H :    0.005306
  73 H :    0.021223
  74 C :   -0.015525
  75 H :    0.027098
  76 H :    0.032721
  77 H :    0.037680
  78 C :   -0.011281
  79 C :   -0.046278
  80 C :   -0.008719
  81 C :    0.011378
  82 C :   -0.003966
  83 C :   -0.028382
  84 C :    0.007544
  85 C :   -0.085187
  86 C :    0.367720
  87 F :   -0.141704
  88 F :   -0.138187
  89 F :   -0.134021
  90 H :    0.045885
  91 H :    0.030458
  92 H :    0.030454
  93 H :    0.037886
  94 C :   -0.019312
  95 C :   -0.038287
  96 C :   -0.011507
  97 C :    0.012970
  98 C :   -0.001307
  99 C :   -0.025018
 100 C :    0.006324
 101 C :   -0.084469
 102 C :    0.366134
 103 F :   -0.135165
 104 F :   -0.136624
 105 F :   -0.140711
 106 H :    0.047874
 107 H :    0.033390
 108 H :    0.031252
 109 H :    0.037456

  Mayer bond orders larger than 0.100000
B(  0-C ,  1-C ) :   1.0883 B(  0-C ,  5-N ) :   1.6278 B(  0-C ,  7-C ) :   1.0072
B(  1-C ,  2-C ) :   1.0826 B(  1-C , 17-I ) :   1.0361 B(  1-C , 18-H ) :   0.2945
B(  2-C ,  3-C ) :   1.5892 B(  2-C , 68-Cl) :   1.1358 B(  3-C ,  4-C ) :   1.2217
B(  3-C ,  6-H ) :   0.9738 B(  4-C ,  5-N ) :   1.3443 B(  4-C , 16-N ) :   1.1498
B(  7-C ,  8-C ) :   1.3708 B(  7-C , 14-C ) :   1.3636 B(  8-C ,  9-C ) :   1.3719
B(  8-C , 69-O ) :   1.0243 B(  9-C , 11-C ) :   1.3777 B(  9-C , 12-H ) :   1.0144
B( 10-C , 11-C ) :   1.3720 B( 10-C , 13-H ) :   1.0112 B( 10-C , 14-C ) :   1.4372
B( 11-C , 74-C ) :   1.0073 B( 14-C , 15-F ) :   0.9131 B( 16-N , 56-C ) :   0.8407
B( 16-N , 59-C ) :   0.8554 B( 18-H , 55-N ) :   0.3576 B( 19-C , 20-C ) :   1.5469
B( 19-C , 24-C ) :   1.2727 B( 19-C , 25-H ) :   1.0015 B( 20-C , 21-C ) :   1.3060
B( 20-C , 26-H ) :   0.9869 B( 21-C , 22-C ) :   1.2599 B( 21-C , 27-C ) :   1.2717
B( 22-C , 23-C ) :   1.2547 B( 22-C , 28-C ) :   1.2546 B( 23-C , 24-C ) :   1.5468
B( 23-C , 29-H ) :   1.0082 B( 24-C , 30-H ) :   1.0007 B( 27-C , 32-C ) :   1.5561
B( 27-C , 34-C ) :   1.0161 B( 28-C , 31-C ) :   1.5207 B( 28-C , 33-H ) :   1.0125
B( 31-C , 32-C ) :   1.3192 B( 31-C , 78-C ) :   0.9788 B( 32-C , 49-S ) :   0.9372
B( 34-C , 35-C ) :   1.5288 B( 34-C , 36-C ) :   1.2884 B( 35-C , 37-C ) :   1.3186
B( 35-C , 52-S ) :   0.9323 B( 36-C , 38-C ) :   1.2582 B( 36-C , 39-C ) :   1.2948
B( 37-C , 40-C ) :   1.5176 B( 37-C , 94-C ) :   0.9800 B( 38-C , 40-C ) :   1.2592
B( 38-C , 41-C ) :   1.2538 B( 39-C , 42-C ) :   1.5510 B( 39-C , 43-H ) :   0.9891
B( 40-C , 44-H ) :   1.0108 B( 41-C , 45-C ) :   1.5493 B( 41-C , 46-H ) :   1.0074
B( 42-C , 45-C ) :   1.2695 B( 42-C , 47-H ) :   1.0025 B( 45-C , 48-H ) :   1.0009
B( 49-S , 50-O ) :   1.6647 B( 49-S , 51-O ) :   1.6204 B( 49-S , 55-N ) :   1.0427
B( 52-S , 53-O ) :   1.6457 B( 52-S , 54-O ) :   1.6536 B( 52-S , 55-N ) :   1.0304
B( 56-C , 57-H ) :   0.9790 B( 56-C , 58-H ) :   0.9815 B( 56-C , 65-C ) :   1.0226
B( 59-C , 60-H ) :   0.9764 B( 59-C , 61-H ) :   0.9739 B( 59-C , 62-C ) :   1.0229
B( 62-C , 63-H ) :   0.9762 B( 62-C , 64-H ) :   0.9803 B( 62-C , 65-C ) :   1.0331
B( 65-C , 66-H ) :   0.9815 B( 65-C , 67-H ) :   0.9748 B( 69-O , 70-C ) :   0.8680
B( 70-C , 71-H ) :   0.9864 B( 70-C , 72-H ) :   0.9843 B( 70-C , 73-H ) :   0.9906
B( 74-C , 75-H ) :   0.9847 B( 74-C , 76-H ) :   0.9819 B( 74-C , 77-H ) :   0.9698
B( 78-C , 79-C ) :   3.0079 B( 79-C , 80-C ) :   0.9693 B( 80-C , 81-C ) :   1.4160
B( 80-C , 85-C ) :   1.3888 B( 81-C , 82-C ) :   1.4165 B( 81-C , 90-H ) :   0.9889
B( 82-C , 83-C ) :   1.3952 B( 82-C , 91-H ) :   1.0015 B( 83-C , 84-C ) :   1.4164
B( 83-C , 92-H ) :   1.0034 B( 84-C , 85-C ) :   1.4371 B( 84-C , 93-H ) :   0.9986
B( 85-C , 86-C ) :   0.9843 B( 86-C , 87-F ) :   0.9631 B( 86-C , 88-F ) :   0.9648
B( 86-C , 89-F ) :   0.9842 B( 94-C , 95-C ) :   3.0065 B( 95-C , 96-C ) :   0.9781
B( 96-C , 97-C ) :   1.4205 B( 96-C ,101-C ) :   1.3865 B( 97-C , 98-C ) :   1.4145
B( 97-C ,106-H ) :   0.9961 B( 98-C , 99-C ) :   1.3976 B( 98-C ,107-H ) :   1.0001
B( 99-C ,100-C ) :   1.4200 B( 99-C ,108-H ) :   1.0017 B(100-C ,101-C ) :   1.4374
B(100-C ,109-H ) :   0.9978 B(101-C ,102-C ) :   0.9853 B(102-C ,103-F ) :   0.9770
B(102-C ,104-F ) :   0.9716 B(102-C ,105-F ) :   0.9641

FINAL SINGLE POINT ENERGY     -4885.245954093905

DIPOLE MOMENT
-------------
                                X             Y             Z
Electronic contribution:     -9.39864    -156.46508    -237.12577
Nuclear contribution   :     13.20940     154.42078     237.35991
                        -----------------------------------------
Total Dipole Moment    :      3.81076      -2.04430       0.23413
                        -----------------------------------------
Magnitude (a.u.)       :      4.33080
Magnitude (Debye)      :     11.00802

Rotational constants in cm-1:     0.001118     0.000678     0.000542
Rotational constants in MHz :    33.520205    20.321210    16.237931

                             ****ORCA TERMINATED NORMALLY****
TOTAL RUN TIME: 0 days 0 hours 18 minutes 58 seconds 770 msec
