                         Program Version 5.0.3 -  RELEASE  -
|  1> #BASE_TS_S-ax-R_2m.mol2_obabel_ClC#CC3=CC=C_C_F__F_F_C=C3_tmp.xyz_to.mol2.xyz
|  2> %maxcore 6000
|  3> %pal nprocs 8 end
|  4> ! HF def2-svp NBO
|  5> %nbo
|  6>  NBOKEYLIST = "$NBO NPA NBBP ARCHIVE $END"
|  7> end
|  8>
|  9> * xyz 0  1
| 10> C     6.5910    -3.1870    -0.7502
| 11> C     5.1559    -3.5848    -1.1936
| 12> C     4.3412    -4.2770    -0.1179
| 13> C     4.9541    -4.5423     1.0656
| 14> C     6.3047    -4.2103     1.2945
| 15> N     7.0648    -3.5324     0.4165
| 16> H     4.3426    -4.9701     1.8331
| 17> C     7.4946    -2.5343    -1.6708
| 18> C     8.8307    -3.0144    -1.8339
| 19> C     9.7192    -2.2997    -2.6496
| 20> C     8.0047    -0.6941    -3.1935
| 21> C     9.3210    -1.1441    -3.3294
| 22> H    10.7164    -2.6461    -2.7856
| 23> H     7.6845     0.1844    -3.7008
| 24> C     7.1091    -1.3525    -2.3654
| 25> F     5.9173    -0.7767    -2.1278
| 26> N     6.8905    -4.6110     2.5138
| 27> I     4.7496    -3.7685    -3.2253
| 28> H     4.5660    -2.1861    -0.9241
| 29> C     2.0740     5.0162    -2.0422
| 30> C     2.0228     3.8120    -1.3520
| 31> C     3.1972     3.1799    -0.9151
| 32> C     4.4588     3.7905    -1.2310
| 33> C     4.4904     5.0205    -1.9216
| 34> C     3.3028     5.6188    -2.3284
| 35> H     1.1680     5.4883    -2.3528
| 36> H     1.0816     3.3541    -1.1540
| 37> C     3.1432     1.9011    -0.2262
| 38> C     5.6394     3.1401    -0.8571
| 39> H     5.4286     5.4663    -2.1701
| 40> H     3.3305     6.5484    -2.8608
| 41> C     5.5883     1.9069    -0.1795
| 42> C     4.3719     1.2374     0.0582
| 43> H     6.5925     3.5729    -1.0982
| 44> C     1.8466     1.3361     0.1625
| 45> C     1.3863     0.0912    -0.3689
| 46> C     0.9984     2.0332     1.1097
| 47> C     0.1549    -0.4392     0.0564
| 48> C    -0.2790     1.4975     1.4827
| 49> C     1.4280     3.2255     1.7238
| 50> C    -0.6840     0.2694     0.9446
| 51> C    -1.0878     2.1965     2.4020
| 52> C     0.6258     3.8937     2.6387
| 53> H     2.3920     3.6143     1.4851
| 54> H    -1.6260    -0.1535     1.2404
| 55> C    -0.6307     3.3834     2.9759
| 56> H    -2.0390     1.7987     2.6838
| 57> H     0.9669     4.7994     3.0821
| 58> H    -1.2493     3.9048     3.6773
| 59> S     4.3008    -0.4028     0.7011
| 60> O     3.4161    -0.3863     1.8374
| 61> O     5.6191    -0.9419     0.9086
| 62> S     2.4609    -0.7366    -1.4880
| 63> O     2.9384     0.2511    -2.4297
| 64> O     1.8300    -1.8999    -2.0546
| 65> N     3.5980    -1.2360    -0.4677
| 66> C     8.2948    -4.3771     2.8339
| 67> H     8.9256    -4.7430     2.0195
| 68> H     8.4636    -3.2968     2.9356
| 69> C     6.2682    -5.5384     3.4738
| 70> H     5.7151    -6.3310     2.9576
| 71> H     5.5509    -4.9731     4.0816
| 72> C     7.4116    -6.1056     4.3265
| 73> H     7.6936    -7.1057     3.9693
| 74> H     7.1254    -6.2189     5.3815
| 75> C     8.5817    -5.1277     4.1452
| 76> H     9.5524    -5.6423     4.1183
| 77> H     8.6263    -4.4251     4.9895
| 78> Cl     2.6729    -3.8733     0.1003
| 79> O     9.1853    -4.1627    -1.1485
| 80> C    10.5195    -4.5831    -1.3055
| 81> H    10.6973    -4.8512    -2.3485
| 82> H    11.2036    -3.7935    -0.9864
| 83> H    10.6807    -5.4599    -0.6782
| 84> C    10.2651    -0.4427    -4.2225
| 85> H    11.2859    -0.5115    -3.8416
| 86> H    10.0133     0.6157    -4.3030
| 87> H    10.2464    -0.8749    -5.2261
| 88> C     6.8623     1.4278     0.2394
| 89> C     7.9656     1.0482     0.5255
| 90> C     9.2668     0.5342     0.8136
| 91> C    10.3866     1.3649     0.7673
| 92> C    11.6566     0.8390     1.0245
| 93> C    11.8188    -0.5237     1.3308
| 94> C    13.1877    -1.1041     1.5656
| 95> F    13.2067    -2.1193     2.4746
| 96> F    13.7454    -1.6107     0.4289
| 97> F    14.0836    -0.1837     2.0304
| 98> C    10.6852    -1.3470     1.3686
| 99> C     9.4188    -0.8166     1.1171
|100> H    10.2751     2.4178     0.5231
|101> H    12.5213     1.4983     0.9784
|102> H    10.7641    -2.4123     1.5816
|103> H     8.5467    -1.4731     1.1387
|104> C    -0.3683    -1.6850    -0.3940
|105> C    -0.8166    -2.7337    -0.7722
|106> C    -1.2939    -3.9913    -1.2546
|107> C    -2.5756    -4.4331    -0.9236
|108> C    -3.0358    -5.6627    -1.4034
|109> C    -2.2151    -6.4674    -2.2109
|110> C    -2.7247    -7.7806    -2.7492
|111> F    -3.3782    -7.6353    -3.9363
|112> F    -1.7419    -8.6965    -2.9739
|113> F    -3.6135    -8.3916    -1.9136
|114> C    -0.9295    -6.0100    -2.5397
|115> C    -0.4716    -4.7791    -2.0627
|116> H    -3.2184    -3.8246    -0.2923
|117> H    -4.0391    -5.9949    -1.1421
|118> H    -0.2732    -6.6099    -3.1684
|119> H     0.5308    -4.4357    -2.3213
|120> *
|121>
|122>
|123>
|124>
|125>                          ****END OF INPUT****

CARTESIAN COORDINATES (ANGSTROEM)
---------------------------------
  C      6.591000   -3.187000   -0.750200
  C      5.155900   -3.584800   -1.193600
  C      4.341200   -4.277000   -0.117900
  C      4.954100   -4.542300    1.065600
  C      6.304700   -4.210300    1.294500
  N      7.064800   -3.532400    0.416500
  H      4.342600   -4.970100    1.833100
  C      7.494600   -2.534300   -1.670800
  C      8.830700   -3.014400   -1.833900
  C      9.719200   -2.299700   -2.649600
  C      8.004700   -0.694100   -3.193500
  C      9.321000   -1.144100   -3.329400
  H     10.716400   -2.646100   -2.785600
  H      7.684500    0.184400   -3.700800
  C      7.109100   -1.352500   -2.365400
  F      5.917300   -0.776700   -2.127800
  N      6.890500   -4.611000    2.513800
  I      4.749600   -3.768500   -3.225300
  H      4.566000   -2.186100   -0.924100
  C      2.074000    5.016200   -2.042200
  C      2.022800    3.812000   -1.352000
  C      3.197200    3.179900   -0.915100
  C      4.458800    3.790500   -1.231000
  C      4.490400    5.020500   -1.921600
  C      3.302800    5.618800   -2.328400
  H      1.168000    5.488300   -2.352800
  H      1.081600    3.354100   -1.154000
  C      3.143200    1.901100   -0.226200
  C      5.639400    3.140100   -0.857100
  H      5.428600    5.466300   -2.170100
  H      3.330500    6.548400   -2.860800
  C      5.588300    1.906900   -0.179500
  C      4.371900    1.237400    0.058200
  H      6.592500    3.572900   -1.098200
  C      1.846600    1.336100    0.162500
  C      1.386300    0.091200   -0.368900
  C      0.998400    2.033200    1.109700
  C      0.154900   -0.439200    0.056400
  C     -0.279000    1.497500    1.482700
  C      1.428000    3.225500    1.723800
  C     -0.684000    0.269400    0.944600
  C     -1.087800    2.196500    2.402000
  C      0.625800    3.893700    2.638700
  H      2.392000    3.614300    1.485100
  H     -1.626000   -0.153500    1.240400
  C     -0.630700    3.383400    2.975900
  H     -2.039000    1.798700    2.683800
  H      0.966900    4.799400    3.082100
  H     -1.249300    3.904800    3.677300
  S      4.300800   -0.402800    0.701100
  O      3.416100   -0.386300    1.837400
  O      5.619100   -0.941900    0.908600
  S      2.460900   -0.736600   -1.488000
  O      2.938400    0.251100   -2.429700
  O      1.830000   -1.899900   -2.054600
  N      3.598000   -1.236000   -0.467700
  C      8.294800   -4.377100    2.833900
  H      8.925600   -4.743000    2.019500
  H      8.463600   -3.296800    2.935600
  C      6.268200   -5.538400    3.473800
  H      5.715100   -6.331000    2.957600
  H      5.550900   -4.973100    4.081600
  C      7.411600   -6.105600    4.326500
  H      7.693600   -7.105700    3.969300
  H      7.125400   -6.218900    5.381500
  C      8.581700   -5.127700    4.145200
  H      9.552400   -5.642300    4.118300
  H      8.626300   -4.425100    4.989500
  Cl     2.672900   -3.873300    0.100300
  O      9.185300   -4.162700   -1.148500
  C     10.519500   -4.583100   -1.305500
  H     10.697300   -4.851200   -2.348500
  H     11.203600   -3.793500   -0.986400
  H     10.680700   -5.459900   -0.678200
  C     10.265100   -0.442700   -4.222500
  H     11.285900   -0.511500   -3.841600
  H     10.013300    0.615700   -4.303000
  H     10.246400   -0.874900   -5.226100
  C      6.862300    1.427800    0.239400
  C      7.965600    1.048200    0.525500
  C      9.266800    0.534200    0.813600
  C     10.386600    1.364900    0.767300
  C     11.656600    0.839000    1.024500
  C     11.818800   -0.523700    1.330800
  C     13.187700   -1.104100    1.565600
  F     13.206700   -2.119300    2.474600
  F     13.745400   -1.610700    0.428900
  F     14.083600   -0.183700    2.030400
  C     10.685200   -1.347000    1.368600
  C      9.418800   -0.816600    1.117100
  H     10.275100    2.417800    0.523100
  H     12.521300    1.498300    0.978400
  H     10.764100   -2.412300    1.581600
  H      8.546700   -1.473100    1.138700
  C     -0.368300   -1.685000   -0.394000
  C     -0.816600   -2.733700   -0.772200
  C     -1.293900   -3.991300   -1.254600
  C     -2.575600   -4.433100   -0.923600
  C     -3.035800   -5.662700   -1.403400
  C     -2.215100   -6.467400   -2.210900
  C     -2.724700   -7.780600   -2.749200
  F     -3.378200   -7.635300   -3.936300
  F     -1.741900   -8.696500   -2.973900
  F     -3.613500   -8.391600   -1.913600
  C     -0.929500   -6.010000   -2.539700
  C     -0.471600   -4.779100   -2.062700
  H     -3.218400   -3.824600   -0.292300
  H     -4.039100   -5.994900   -1.142100
  H     -0.273200   -6.609900   -3.168400
  H      0.530800   -4.435700   -2.321300

 Total Charge           Charge          ....    0
 Multiplicity           Mult            ....    1
 Number of Electrons    NEL             ....  564
 Basis Dimension        Dim             .... 1240

ORBITAL ENERGIES
----------------

  NO   OCC          E(Eh)            E(eV)
   0   2.0000    -104.809048     -2851.9992
   1   2.0000     -92.178236     -2508.2973
   2   2.0000     -92.174637     -2508.1994
   3   2.0000     -26.332920      -716.5552
   4   2.0000     -26.329693      -716.4674
   5   2.0000     -26.329462      -716.4611
   6   2.0000     -26.321262      -716.2380
   7   2.0000     -26.320284      -716.2113
   8   2.0000     -26.318812      -716.1713
   9   2.0000     -26.314067      -716.0422
  10   2.0000     -20.600166      -560.5590
  11   2.0000     -20.532324      -558.7129
  12   2.0000     -20.517091      -558.2984
  13   2.0000     -20.512510      -558.1738
  14   2.0000     -20.511472      -558.1455
  15   2.0000     -15.612518      -424.8382
  16   2.0000     -15.579068      -423.9280
  17   2.0000     -15.566850      -423.5955
  18   2.0000     -11.522380      -313.5399
  19   2.0000     -11.509577      -313.1915
  20   2.0000     -11.379218      -309.6443
  21   2.0000     -11.361822      -309.1709
  22   2.0000     -11.359472      -309.1069
  23   2.0000     -11.358025      -309.0676
  24   2.0000     -11.344931      -308.7113
  25   2.0000     -11.308182      -307.7113
  26   2.0000     -11.305710      -307.6440
  27   2.0000     -11.293935      -307.3236
  28   2.0000     -11.291694      -307.2626
  29   2.0000     -11.291436      -307.2556
  30   2.0000     -11.287595      -307.1511
  31   2.0000     -11.285738      -307.1005
  32   2.0000     -11.283428      -307.0377
  33   2.0000     -11.280731      -306.9643
  34   2.0000     -11.280709      -306.9637
  35   2.0000     -11.280474      -306.9573
  36   2.0000     -11.280426      -306.9560
  37   2.0000     -11.278858      -306.9133
  38   2.0000     -11.273272      -306.7613
  39   2.0000     -11.271935      -306.7250
  40   2.0000     -11.271257      -306.7065
  41   2.0000     -11.269402      -306.6560
  42   2.0000     -11.268152      -306.6220
  43   2.0000     -11.267005      -306.5908
  44   2.0000     -11.266832      -306.5861
  45   2.0000     -11.264567      -306.5245
  46   2.0000     -11.264208      -306.5147
  47   2.0000     -11.263837      -306.5046
  48   2.0000     -11.263339      -306.4910
  49   2.0000     -11.262726      -306.4744
  50   2.0000     -11.262379      -306.4649
  51   2.0000     -11.261292      -306.4353
  52   2.0000     -11.260149      -306.4042
  53   2.0000     -11.256809      -306.3134
  54   2.0000     -11.254807      -306.2589
  55   2.0000     -11.254656      -306.2548
  56   2.0000     -11.253748      -306.2301
  57   2.0000     -11.253451      -306.2220
  58   2.0000     -11.251891      -306.1795
  59   2.0000     -11.251659      -306.1732
  60   2.0000     -11.251112      -306.1583
  61   2.0000     -11.250028      -306.1288
  62   2.0000     -11.249807      -306.1228
  63   2.0000     -11.249274      -306.1083
  64   2.0000     -11.248971      -306.1001
  65   2.0000     -11.248624      -306.0906
  66   2.0000     -11.248076      -306.0757
  67   2.0000     -11.247885      -306.0705
  68   2.0000     -11.245046      -305.9933
  69   2.0000     -11.241971      -305.9096
  70   2.0000     -11.235619      -305.7367
  71   2.0000     -11.235265      -305.7271
  72   2.0000     -11.230559      -305.5990
  73   2.0000     -10.572441      -287.6908
  74   2.0000      -9.178009      -249.7463
  75   2.0000      -9.173950      -249.6359
  76   2.0000      -8.047338      -218.9792
  77   2.0000      -8.043528      -218.8755
  78   2.0000      -8.043352      -218.8707
  79   2.0000      -7.737612      -210.5511
  80   2.0000      -6.869449      -186.9272
  81   2.0000      -6.869117      -186.9182
  82   2.0000      -6.868201      -186.8932
  83   2.0000      -6.865288      -186.8140
  84   2.0000      -6.865135      -186.8098
  85   2.0000      -6.864177      -186.7837
  86   2.0000      -5.595688      -152.2664
  87   2.0000      -5.581341      -151.8760
  88   2.0000      -5.580626      -151.8565
  89   2.0000      -2.291628       -62.3584
  90   2.0000      -2.285328       -62.1869
  91   2.0000      -2.284723       -62.1705
  92   2.0000      -2.269812       -61.7647
  93   2.0000      -2.269788       -61.7641
  94   2.0000      -1.698511       -46.2188
  95   2.0000      -1.685976       -45.8777
  96   2.0000      -1.621515       -44.1237
  97   2.0000      -1.602466       -43.6053
  98   2.0000      -1.599950       -43.5369
  99   2.0000      -1.590401       -43.2770
 100   2.0000      -1.586879       -43.1812
 101   2.0000      -1.464307       -39.8458
 102   2.0000      -1.441282       -39.2193
 103   2.0000      -1.413396       -38.4605
 104   2.0000      -1.318963       -35.8908
 105   2.0000      -1.314845       -35.7787
 106   2.0000      -1.308105       -35.5954
 107   2.0000      -1.251774       -34.0625
 108   2.0000      -1.217184       -33.1213
 109   2.0000      -1.199125       -32.6299
 110   2.0000      -1.186010       -32.2730
 111   2.0000      -1.182749       -32.1842
 112   2.0000      -1.179990       -32.1092
 113   2.0000      -1.171234       -31.8709
 114   2.0000      -1.169156       -31.8143
 115   2.0000      -1.134407       -30.8688
 116   2.0000      -1.129957       -30.7477
 117   2.0000      -1.106341       -30.1051
 118   2.0000      -1.103066       -30.0159
 119   2.0000      -1.087450       -29.5910
 120   2.0000      -1.077679       -29.3251
 121   2.0000      -1.071442       -29.1554
 122   2.0000      -1.053498       -28.6671
 123   2.0000      -1.049173       -28.5494
 124   2.0000      -1.043314       -28.3900
 125   2.0000      -1.039780       -28.2939
 126   2.0000      -1.030865       -28.0513
 127   2.0000      -1.030002       -28.0278
 128   2.0000      -1.022586       -27.8260
 129   2.0000      -1.020238       -27.7621
 130   2.0000      -1.019149       -27.7325
 131   2.0000      -1.014868       -27.6160
 132   2.0000      -1.007168       -27.4064
 133   2.0000      -0.993218       -27.0268
 134   2.0000      -0.981061       -26.6960
 135   2.0000      -0.972468       -26.4622
 136   2.0000      -0.956042       -26.0152
 137   2.0000      -0.953361       -25.9423
 138   2.0000      -0.943657       -25.6782
 139   2.0000      -0.926160       -25.2021
 140   2.0000      -0.924741       -25.1635
 141   2.0000      -0.911527       -24.8039
 142   2.0000      -0.886960       -24.1354
 143   2.0000      -0.880381       -23.9564
 144   2.0000      -0.873195       -23.7609
 145   2.0000      -0.865232       -23.5441
 146   2.0000      -0.858961       -23.3735
 147   2.0000      -0.857264       -23.3273
 148   2.0000      -0.856933       -23.3183
 149   2.0000      -0.848447       -23.0874
 150   2.0000      -0.846399       -23.0317
 151   2.0000      -0.844873       -22.9902
 152   2.0000      -0.844572       -22.9820
 153   2.0000      -0.829921       -22.5833
 154   2.0000      -0.816244       -22.2111
 155   2.0000      -0.813839       -22.1457
 156   2.0000      -0.808790       -22.0083
 157   2.0000      -0.803044       -21.8519
 158   2.0000      -0.802333       -21.8326
 159   2.0000      -0.798992       -21.7417
 160   2.0000      -0.797030       -21.6883
 161   2.0000      -0.794565       -21.6212
 162   2.0000      -0.791650       -21.5419
 163   2.0000      -0.780870       -21.2486
 164   2.0000      -0.765488       -20.8300
 165   2.0000      -0.762380       -20.7454
 166   2.0000      -0.750678       -20.4270
 167   2.0000      -0.747076       -20.3290
 168   2.0000      -0.744130       -20.2488
 169   2.0000      -0.735803       -20.0222
 170   2.0000      -0.731338       -19.9007
 171   2.0000      -0.725083       -19.7305
 172   2.0000      -0.722489       -19.6599
 173   2.0000      -0.713332       -19.4108
 174   2.0000      -0.711635       -19.3646
 175   2.0000      -0.709668       -19.3110
 176   2.0000      -0.709335       -19.3020
 177   2.0000      -0.707469       -19.2512
 178   2.0000      -0.698733       -19.0135
 179   2.0000      -0.697463       -18.9789
 180   2.0000      -0.696992       -18.9661
 181   2.0000      -0.695362       -18.9218
 182   2.0000      -0.694246       -18.8914
 183   2.0000      -0.688631       -18.7386
 184   2.0000      -0.681149       -18.5350
 185   2.0000      -0.678207       -18.4549
 186   2.0000      -0.676030       -18.3957
 187   2.0000      -0.666535       -18.1373
 188   2.0000      -0.662626       -18.0310
 189   2.0000      -0.660182       -17.9645
 190   2.0000      -0.659500       -17.9459
 191   2.0000      -0.655484       -17.8366
 192   2.0000      -0.655002       -17.8235
 193   2.0000      -0.652450       -17.7541
 194   2.0000      -0.650677       -17.7058
 195   2.0000      -0.649498       -17.6737
 196   2.0000      -0.647485       -17.6190
 197   2.0000      -0.646957       -17.6046
 198   2.0000      -0.646666       -17.5967
 199   2.0000      -0.642332       -17.4788
 200   2.0000      -0.639622       -17.4050
 201   2.0000      -0.636632       -17.3236
 202   2.0000      -0.633856       -17.2481
 203   2.0000      -0.632147       -17.2016
 204   2.0000      -0.629860       -17.1394
 205   2.0000      -0.621845       -16.9213
 206   2.0000      -0.619241       -16.8504
 207   2.0000      -0.616595       -16.7784
 208   2.0000      -0.613342       -16.6899
 209   2.0000      -0.610105       -16.6018
 210   2.0000      -0.609859       -16.5951
 211   2.0000      -0.608893       -16.5688
 212   2.0000      -0.607625       -16.5343
 213   2.0000      -0.606581       -16.5059
 214   2.0000      -0.606221       -16.4961
 215   2.0000      -0.602513       -16.3952
 216   2.0000      -0.601727       -16.3738
 217   2.0000      -0.600741       -16.3470
 218   2.0000      -0.598235       -16.2788
 219   2.0000      -0.592806       -16.1311
 220   2.0000      -0.583791       -15.8858
 221   2.0000      -0.580422       -15.7941
 222   2.0000      -0.575857       -15.6699
 223   2.0000      -0.572389       -15.5755
 224   2.0000      -0.568977       -15.4827
 225   2.0000      -0.563474       -15.3329
 226   2.0000      -0.562406       -15.3038
 227   2.0000      -0.551812       -15.0156
 228   2.0000      -0.546093       -14.8599
 229   2.0000      -0.544371       -14.8131
 230   2.0000      -0.541973       -14.7478
 231   2.0000      -0.541589       -14.7374
 232   2.0000      -0.536690       -14.6041
 233   2.0000      -0.533787       -14.5251
 234   2.0000      -0.532263       -14.4836
 235   2.0000      -0.530585       -14.4380
 236   2.0000      -0.527784       -14.3617
 237   2.0000      -0.527043       -14.3416
 238   2.0000      -0.525548       -14.3009
 239   2.0000      -0.523902       -14.2561
 240   2.0000      -0.521857       -14.2004
 241   2.0000      -0.516811       -14.0632
 242   2.0000      -0.515711       -14.0332
 243   2.0000      -0.515249       -14.0206
 244   2.0000      -0.512670       -13.9505
 245   2.0000      -0.506711       -13.7883
 246   2.0000      -0.505082       -13.7440
 247   2.0000      -0.501366       -13.6429
 248   2.0000      -0.492769       -13.4089
 249   2.0000      -0.490989       -13.3605
 250   2.0000      -0.487077       -13.2540
 251   2.0000      -0.486484       -13.2379
 252   2.0000      -0.485283       -13.2052
 253   2.0000      -0.479414       -13.0455
 254   2.0000      -0.473206       -12.8766
 255   2.0000      -0.467207       -12.7133
 256   2.0000      -0.458734       -12.4828
 257   2.0000      -0.457022       -12.4362
 258   2.0000      -0.445381       -12.1194
 259   2.0000      -0.437705       -11.9106
 260   2.0000      -0.430154       -11.7051
 261   2.0000      -0.428310       -11.6549
 262   2.0000      -0.425273       -11.5723
 263   2.0000      -0.418565       -11.3897
 264   2.0000      -0.400051       -10.8859
 265   2.0000      -0.396160       -10.7801
 266   2.0000      -0.392504       -10.6806
 267   2.0000      -0.387873       -10.5546
 268   2.0000      -0.381173       -10.3722
 269   2.0000      -0.374170       -10.1817
 270   2.0000      -0.367699       -10.0056
 271   2.0000      -0.362142        -9.8544
 272   2.0000      -0.359780        -9.7901
 273   2.0000      -0.358226        -9.7478
 274   2.0000      -0.350183        -9.5290
 275   2.0000      -0.345843        -9.4109
 276   2.0000      -0.337165        -9.1747
 277   2.0000      -0.327979        -8.9248
 278   2.0000      -0.320129        -8.7112
 279   2.0000      -0.309692        -8.4272
 280   2.0000      -0.288172        -7.8416
 281   2.0000      -0.275935        -7.5086
 282   0.0000       0.019520         0.5312
 283   0.0000       0.037199         1.0122
 284   0.0000       0.045888         1.2487
 285   0.0000       0.058447         1.5904
 286   0.0000       0.068263         1.8575

MULLIKEN ATOMIC CHARGES
-----------------------
   0 C :    0.368803
   1 C :   -0.697335
   2 C :    0.191602
   3 C :   -0.118600
   4 C :    0.551150
   5 N :   -0.379658
   6 H :    0.069188
   7 C :   -0.303520
   8 C :    0.450552
   9 C :   -0.164323
  10 C :   -0.112322
  11 C :   -0.095441
  12 H :    0.018204
  13 H :    0.037302
  14 C :    0.513444
  15 F :   -0.323020
  16 N :   -0.723180
  17 I :    0.182859
  18 H :    0.529965
  19 C :   -0.016905
  20 C :    0.018422
  21 C :   -0.056502
  22 C :   -0.015805
  23 C :   -0.009290
  24 C :   -0.002109
  25 H :    0.037172
  26 H :    0.060662
  27 C :    0.024706
  28 C :    0.043270
  29 H :    0.024989
  30 H :    0.039364
  31 C :   -0.106841
  32 C :   -0.101031
  33 H :    0.030903
  34 C :    0.038855
  35 C :   -0.109864
  36 C :   -0.058088
  37 C :   -0.093735
  38 C :   -0.017355
  39 C :    0.011085
  40 C :    0.049984
  41 C :   -0.009987
  42 C :   -0.014556
  43 H :    0.060723
  44 H :    0.033150
  45 C :   -0.003623
  46 H :    0.027949
  47 H :    0.034472
  48 H :    0.039248
  49 S :    1.361472
  50 O :   -0.619937
  51 O :   -0.633151
  52 S :    1.354446
  53 O :   -0.613180
  54 O :   -0.611754
  55 N :   -0.869584
  56 C :    0.241020
  57 H :    0.052981
  58 H :    0.060089
  59 C :    0.209884
  60 H :    0.053051
  61 H :    0.058100
  62 C :   -0.084649
  63 H :    0.052288
  64 H :    0.058893
  65 C :   -0.106383
  66 H :    0.056029
  67 H :    0.056162
  68 Cl:   -0.023714
  69 O :   -0.545279
  70 C :    0.222366
  71 H :    0.037761
  72 H :    0.040443
  73 H :    0.052613
  74 C :    0.069136
  75 H :    0.047348
  76 H :    0.045633
  77 H :    0.068253
  78 C :   -0.001599
  79 C :    0.006289
  80 C :   -0.100157
  81 C :    0.002129
  82 C :    0.016829
  83 C :   -0.310058
  84 C :    1.048729
  85 F :   -0.319245
  86 F :   -0.320267
  87 F :   -0.321466
  88 C :   -0.000078
  89 C :   -0.012653
  90 H :    0.048059
  91 H :    0.063409
  92 H :    0.058022
  93 H :    0.117353
  94 C :   -0.009976
  95 C :    0.017595
  96 C :   -0.113337
  97 C :    0.004377
  98 C :    0.017290
  99 C :   -0.313319
 100 C :    1.047475
 101 F :   -0.316304
 102 F :   -0.318523
 103 F :   -0.322153
 104 C :    0.017025
 105 C :    0.008373
 106 H :    0.047778
 107 H :    0.062070
 108 H :    0.064296
 109 H :    0.086764
Sum of atomic charges:   -0.0000000

LOEWDIN ATOMIC CHARGES
----------------------
   0 C :    0.157522
   1 C :   -0.359978
   2 C :   -0.021339
   3 C :   -0.119533
   4 C :    0.216823
   5 N :   -0.159956
   6 H :    0.034572
   7 C :   -0.136622
   8 C :    0.163524
   9 C :   -0.098510
  10 C :   -0.078538
  11 C :    0.029392
  12 H :    0.023725
  13 H :    0.032826
  14 C :    0.189514
  15 F :   -0.108824
  16 N :   -0.124697
  17 I :    0.204850
  18 H :    0.193274
  19 C :   -0.017971
  20 C :    0.012629
  21 C :   -0.009038
  22 C :   -0.008793
  23 C :   -0.013917
  24 C :   -0.004640
  25 H :    0.027248
  26 H :    0.031375
  27 C :    0.014758
  28 C :    0.024401
  29 H :    0.025039
  30 H :    0.027147
  31 C :   -0.036410
  32 C :   -0.181585
  33 H :    0.033653
  34 C :    0.010053
  35 C :   -0.180398
  36 C :   -0.010708
  37 C :   -0.031762
  38 C :   -0.009135
  39 C :    0.008385
  40 C :    0.027969
  41 C :   -0.011593
  42 C :   -0.018756
  43 H :    0.030376
  44 H :    0.034727
  45 C :   -0.005155
  46 H :    0.026198
  47 H :    0.026281
  48 H :    0.026847
  49 S :    1.324187
  50 O :   -0.594912
  51 O :   -0.582680
  52 S :    1.328006
  53 O :   -0.590798
  54 O :   -0.575239
  55 N :   -0.629425
  56 C :    0.083712
  57 H :    0.014392
  58 H :    0.021151
  59 C :    0.082392
  60 H :    0.016539
  61 H :    0.017104
  62 C :   -0.019914
  63 H :    0.021629
  64 H :    0.026877
  65 C :   -0.021841
  66 H :    0.024957
  67 H :    0.023532
  68 Cl:    0.193229
  69 O :   -0.185258
  70 C :    0.130542
  71 H :    0.009329
  72 H :    0.008909
  73 H :    0.020447
  74 C :   -0.015621
  75 H :    0.029476
  76 H :    0.029292
  77 H :    0.038298
  78 C :   -0.024375
  79 C :   -0.034508
  80 C :   -0.020854
  81 C :   -0.002024
  82 C :    0.006144
  83 C :   -0.100561
  84 C :    0.361687
  85 F :   -0.137084
  86 F :   -0.144032
  87 F :   -0.139110
  88 C :    0.004112
  89 C :    0.013851
  90 H :    0.036025
  91 H :    0.037494
  92 H :    0.033769
  93 H :    0.046741
  94 C :   -0.033532
  95 C :   -0.025171
  96 C :   -0.023795
  97 C :   -0.002728
  98 C :    0.006738
  99 C :   -0.097261
 100 C :    0.360841
 101 F :   -0.140670
 102 F :   -0.135704
 103 F :   -0.139340
 104 C :    0.008550
 105 C :    0.013037
 106 H :    0.035652
 107 H :    0.037007
 108 H :    0.038444
 109 H :    0.047096

  Mayer bond orders larger than 0.100000
B(  0-C ,  1-C ) :   1.0890 B(  0-C ,  5-N ) :   1.6238 B(  0-C ,  7-C ) :   1.0062
B(  1-C ,  2-C ) :   1.0818 B(  1-C , 17-I ) :   1.0360 B(  1-C , 18-H ) :   0.2980
B(  2-C ,  3-C ) :   1.5929 B(  2-C , 68-Cl) :   1.1293 B(  3-C ,  4-C ) :   1.2198
B(  3-C ,  6-H ) :   0.9726 B(  4-C ,  5-N ) :   1.3480 B(  4-C , 16-N ) :   1.1479
B(  7-C ,  8-C ) :   1.3639 B(  7-C , 14-C ) :   1.3694 B(  8-C ,  9-C ) :   1.3736
B(  8-C , 69-O ) :   1.0297 B(  9-C , 11-C ) :   1.3755 B(  9-C , 12-H ) :   1.0153
B( 10-C , 11-C ) :   1.3760 B( 10-C , 13-H ) :   1.0105 B( 10-C , 14-C ) :   1.4317
B( 11-C , 74-C ) :   1.0084 B( 14-C , 15-F ) :   0.9127 B( 16-N , 56-C ) :   0.8408
B( 16-N , 59-C ) :   0.8562 B( 18-H , 55-N ) :   0.3536 B( 19-C , 20-C ) :   1.5465
B( 19-C , 24-C ) :   1.2735 B( 19-C , 25-H ) :   1.0014 B( 20-C , 21-C ) :   1.3050
B( 20-C , 26-H ) :   0.9873 B( 21-C , 22-C ) :   1.2613 B( 21-C , 27-C ) :   1.2706
B( 22-C , 23-C ) :   1.2532 B( 22-C , 28-C ) :   1.2593 B( 23-C , 24-C ) :   1.5470
B( 23-C , 29-H ) :   1.0082 B( 24-C , 30-H ) :   1.0005 B( 27-C , 32-C ) :   1.5544
B( 27-C , 34-C ) :   1.0174 B( 28-C , 31-C ) :   1.5205 B( 28-C , 33-H ) :   1.0121
B( 31-C , 32-C ) :   1.3237 B( 31-C , 78-C ) :   0.9727 B( 32-C , 49-S ) :   0.9355
B( 34-C , 35-C ) :   1.5289 B( 34-C , 36-C ) :   1.2871 B( 35-C , 37-C ) :   1.3284
B( 35-C , 52-S ) :   0.9298 B( 36-C , 38-C ) :   1.2599 B( 36-C , 39-C ) :   1.2934
B( 37-C , 40-C ) :   1.5143 B( 37-C , 94-C ) :   0.9756 B( 38-C , 40-C ) :   1.2635
B( 38-C , 41-C ) :   1.2510 B( 39-C , 42-C ) :   1.5520 B( 39-C , 43-H ) :   0.9889
B( 40-C , 44-H ) :   1.0117 B( 41-C , 45-C ) :   1.5506 B( 41-C , 46-H ) :   1.0077
B( 42-C , 45-C ) :   1.2691 B( 42-C , 47-H ) :   1.0024 B( 45-C , 48-H ) :   1.0007
B( 49-S , 50-O ) :   1.6621 B( 49-S , 51-O ) :   1.6221 B( 49-S , 55-N ) :   1.0432
B( 52-S , 53-O ) :   1.6453 B( 52-S , 54-O ) :   1.6561 B( 52-S , 55-N ) :   1.0310
B( 56-C , 57-H ) :   0.9796 B( 56-C , 58-H ) :   0.9810 B( 56-C , 65-C ) :   1.0206
B( 59-C , 60-H ) :   0.9762 B( 59-C , 61-H ) :   0.9749 B( 59-C , 62-C ) :   1.0236
B( 62-C , 63-H ) :   0.9767 B( 62-C , 64-H ) :   0.9801 B( 62-C , 65-C ) :   1.0317
B( 65-C , 66-H ) :   0.9822 B( 65-C , 67-H ) :   0.9743 B( 69-O , 70-C ) :   0.8629
B( 70-C , 71-H ) :   0.9873 B( 70-C , 72-H ) :   0.9830 B( 70-C , 73-H ) :   0.9903
B( 74-C , 75-H ) :   0.9834 B( 74-C , 76-H ) :   0.9833 B( 74-C , 77-H ) :   0.9696
B( 78-C , 79-C ) :   2.9867 B( 79-C , 80-C ) :   0.9722 B( 80-C , 81-C ) :   1.3791
B( 80-C , 89-C ) :   1.3841 B( 81-C , 82-C ) :   1.4398 B( 81-C , 90-H ) :   1.0062
B( 82-C , 83-C ) :   1.4038 B( 82-C , 91-H ) :   0.9989 B( 83-C , 84-C ) :   0.9903
B( 83-C , 88-C ) :   1.3915 B( 84-C , 85-F ) :   0.9725 B( 84-C , 86-F ) :   0.9839
B( 84-C , 87-F ) :   0.9689 B( 88-C , 89-C ) :   1.4377 B( 88-C , 92-H ) :   1.0024
B( 89-C , 93-H ) :   0.9941 B( 94-C , 95-C ) :   2.9860 B( 95-C , 96-C ) :   0.9769
B( 96-C , 97-C ) :   1.3792 B( 96-C ,105-C ) :   1.3899 B( 97-C , 98-C ) :   1.4418
B( 97-C ,106-H ) :   1.0050 B( 98-C , 99-C ) :   1.4042 B( 98-C ,107-H ) :   0.9978
B( 99-C ,100-C ) :   0.9885 B( 99-C ,104-C ) :   1.3989 B(100-C ,101-F ) :   0.9916
B(100-C ,102-F ) :   0.9728 B(100-C ,103-F ) :   0.9680 B(104-C ,105-C ) :   1.4342
B(104-C ,108-H ) :   1.0002 B(105-C ,109-H ) :   0.9977

FINAL SINGLE POINT ENERGY     -4885.252832876124

DIPOLE MOMENT
-------------
                                X             Y             Z
Electronic contribution:    -20.87139    -176.02880    -219.17896
Nuclear contribution   :     23.23259     177.26982     220.34564
                        -----------------------------------------
Total Dipole Moment    :      2.36120       1.24102       1.16668
                        -----------------------------------------
Magnitude (a.u.)       :      2.91145
Magnitude (Debye)      :      7.40031

Rotational constants in cm-1:     0.001041     0.000596     0.000470
Rotational constants in MHz :    31.199475    17.854939    14.098024

                             ****ORCA TERMINATED NORMALLY****
TOTAL RUN TIME: 0 days 0 hours 18 minutes 36 seconds 933 msec
